 Gaussian 09, Revision D.01,
 Gaussian 09:  ES64L-G09RevD.01 24-Apr-2013

 -------------------------------
 #RHF/cc-pVDZ 5D 7F units=AU opt
 -------------------------------

 --------------------------------------------------
 H2O RHF with cc-pVDZ basis (geometry optimization)
 --------------------------------------------------
 Symbolic Z-matrix:
 Charge =  0 Multiplicity = 1

 SCF Done:  E(RHF) =  -76.0240385115     A.U. after   10 cycles
 SCF Done:  E(RHF) =  -76.0269688270     A.U. after    9 cycles
 SCF Done:  E(RHF) =  -76.0270530508     A.U. after    8 cycles
 SCF Done:  E(RHF) =  -76.0270535127     A.U. after    7 cycles
 Optimization completed.
    -- Stationary point found.

                         Standard orientation:
 ---------------------------------------------------------------------
 Center     Atomic      Atomic             Coordinates (Angstroms)
 Number     Number       Type             X           Y           Z
 ---------------------------------------------------------------------
      1          8           0        0.000000    0.000000    0.115717
      2          1           0        0.000000    0.748794   -0.462869
      3          1           0        0.000000   -0.748794   -0.462869
 ---------------------------------------------------------------------

 The electronic state is 1-A1.
 Alpha  occ. eigenvalues --  -20.54843  -1.34227  -0.70543  -0.56840  -0.49392
 Alpha virt. eigenvalues --    0.18741   0.25781   0.79767   0.86438   1.16264
 Alpha virt. eigenvalues --    1.20040   1.25260   1.44388   1.47886   1.67750
 Alpha virt. eigenvalues --    1.86528   1.94659   2.47940   2.51819   3.29490

 Mulliken charges:
               1
     1  O   -0.292228
     2  H    0.146114
     3  H    0.146114
 Sum of Mulliken charges =   0.00000

 Dipole moment (field-independent basis, Debye):
    X=              0.0000    Y=              0.0000    Z=             -2.0442  Tot=              2.0442
 Quadrupole moment (field-independent basis, Debye-Ang):
   XX=             -7.0083   YY=             -4.1405   ZZ=             -5.8840
   XY=              0.0000   XZ=              0.0000   YZ=              0.0000

 Normal termination of Gaussian 09 at Thu Dec  3 13:29:02 2020.
