 Gaussian 09, Revision D.01,
 Gaussian 09:  ES64L-G09RevD.01 24-Apr-2013

 --------------------------------
 #RHF/cc-pVDZ 5D 7F units=Ang opt
 --------------------------------

 -------------------------------------------------------
 Coronene RHF with cc-pVDZ basis (geometry optimization)
 -------------------------------------------------------
 Symbolic Z-matrix:
 Charge =  0 Multiplicity = 1

 SCF Done:  E(RHF) =  -916.013927945     A.U. after   17 cycles
 SCF Done:  E(RHF) =  -916.015344162     A.U. after   19 cycles
 SCF Done:  E(RHF) =  -916.015459705     A.U. after    9 cycles
 Optimization completed.
    -- Stationary point found.

                         Standard orientation:
 ---------------------------------------------------------------------
 Center     Atomic      Atomic             Coordinates (Angstroms)
 Number     Number       Type             X           Y           Z
 ---------------------------------------------------------------------
      1          6           0        0.000000    1.427999    0.000000
      2          6           0        1.236683    0.713999    0.000000
      3          6           0        1.236683   -0.713999    0.000000
      4          6           0        0.000000   -1.427999    0.000000
      5          6           0       -1.236683   -0.713999    0.000000
      6          6           0       -1.236683    0.713999    0.000000
      7          6           0        0.000000    2.827264    0.000000
      8          6           0        2.448483    1.413632    0.000000
      9          6           0        2.448483   -1.413632    0.000000
     10          6           0        0.000000   -2.827264    0.000000
     11          6           0       -2.448483   -1.413632    0.000000
     12          6           0       -2.448483    1.413632    0.000000
     13          6           0        1.247884    3.518114    0.000000
     14          6           0        2.422834    2.839756    0.000000
     15          6           0        3.670718    0.678358    0.000000
     16          6           0        3.670718   -0.678358    0.000000
     17          6           0        2.422834   -2.839756    0.000000
     18          6           0        1.247884   -3.518114    0.000000
     19          6           0       -1.247884   -3.518114    0.000000
     20          6           0       -2.422834   -2.839756    0.000000
     21          6           0       -3.670718   -0.678358    0.000000
     22          6           0       -3.670718    0.678358    0.000000
     23          6           0       -2.422834    2.839756    0.000000
     24          6           0       -1.247884    3.518114    0.000000
     25          1           0        1.244043    4.600108    0.000000
     26          1           0        3.361789    3.377427    0.000000
     27          1           0        4.605832    1.222681    0.000000
     28          1           0        4.605832   -1.222681    0.000000
     29          1           0        3.361789   -3.377427    0.000000
     30          1           0        1.244043   -4.600108    0.000000
     31          1           0       -1.244043   -4.600108    0.000000
     32          1           0       -3.361789   -3.377427    0.000000
     33          1           0       -4.605832   -1.222681    0.000000
     34          1           0       -4.605832    1.222681    0.000000
     35          1           0       -3.361789    3.377427    0.000000
     36          1           0       -1.244043    4.600108    0.000000
 ---------------------------------------------------------------------

 The electronic state is 1-A1G.
 Alpha  occ. eigenvalues --  -11.24953 -11.24921 -11.24921 -11.24881 -11.24881
 Alpha  occ. eigenvalues --  -11.24873 -11.24817 -11.24804 -11.24804 -11.24745
 Alpha  occ. eigenvalues --  -11.24745 -11.24704 -11.24338 -11.24336 -11.24336
 Alpha  occ. eigenvalues --  -11.24330 -11.24330 -11.24327 -11.24193 -11.24191
 Alpha  occ. eigenvalues --  -11.24191 -11.24186 -11.24186 -11.24184  -1.22020
 Alpha  occ. eigenvalues --   -1.17474  -1.17474  -1.11477  -1.11477  -1.09109
 Alpha  occ. eigenvalues --   -1.05569  -1.03427  -1.01609  -1.01609  -0.97503
 Alpha  occ. eigenvalues --   -0.97503  -0.86494  -0.86494  -0.86422  -0.86422
 Alpha  occ. eigenvalues --   -0.85253  -0.77472  -0.76881  -0.73985  -0.73985
 Alpha  occ. eigenvalues --   -0.72735  -0.70496  -0.65397  -0.65397  -0.63644
 Alpha  occ. eigenvalues --   -0.63644  -0.63395  -0.63395  -0.59703  -0.58943
 Alpha  occ. eigenvalues --   -0.58943  -0.58334  -0.57989  -0.56785  -0.56785
 Alpha  occ. eigenvalues --   -0.53319  -0.52683  -0.52368  -0.52368  -0.51256
 Alpha  occ. eigenvalues --   -0.51107  -0.51107  -0.45934  -0.45934  -0.44811
 Alpha  occ. eigenvalues --   -0.44811  -0.42131  -0.36912  -0.34671  -0.33284
 Alpha  occ. eigenvalues --   -0.33284  -0.26190  -0.26190
 Alpha virt. eigenvalues --    0.06415   0.06415   0.11812   0.11812   0.13603
 Alpha virt. eigenvalues --    0.17973   0.18234   0.19036   0.19036   0.20551
 Alpha virt. eigenvalues --    0.20551   0.21894   0.22028   0.23309   0.25091

 Mulliken charges:
               1
     1  C    0.029289
     2  C    0.029289
     3  C    0.029289
     4  C    0.029289
     5  C    0.029289
     6  C    0.029289
     7  C   -0.148682
     8  C   -0.148682
     9  C   -0.148682
    10  C   -0.148682
    11  C   -0.148682
    12  C   -0.148682
    13  C    0.049151
    14  C    0.049151
    15  C    0.049151
    16  C    0.049151
    17  C    0.049151
    18  C    0.049151
    19  C    0.049151
    20  C    0.049151
    21  C    0.049151
    22  C    0.049151
    23  C    0.049151
    24  C    0.049151
    25  H    0.010545
    26  H    0.010545
    27  H    0.010545
    28  H    0.010545
    29  H    0.010545
    30  H    0.010545
    31  H    0.010545
    32  H    0.010545
    33  H    0.010545
    34  H    0.010545
    35  H    0.010545
    36  H    0.010545
 Sum of Mulliken charges =   0.00000

 Dipole moment (field-independent basis, Debye):
    X=              0.0000    Y=              0.0000    Z=              0.0000  Tot=              0.0000
 Quadrupole moment (field-independent basis, Debye-Ang):
   XX=           -116.9353   YY=           -116.9353   ZZ=           -148.2820
   XY=              0.0000   XZ=              0.0000   YZ=              0.0000

 1\1\GINC-E2-W6420B-01\FOpt\RHF\CC-pVDZ\C24H12\WPURWANT\09-Dec-2020\0\\
 #RHF/cc-pVDZ 5D 7F units=Ang opt\\Coronene RHF with cc-pVDZ basis (geo
 metry optimization)\\0,1\C,0.,1.4279989627,0.\C,1.2366833783,0.7139994
 814,0.\C,1.2366833783,-0.7139994814,0.\C,0.,-1.4279989627,0.\C,-1.2366
 833783,-0.7139994814,0.\C,-1.2366833783,0.7139994814,0.\C,0.,2.8272644
 917,0.\C,2.448482873,1.4136322459,0.\C,2.448482873,-1.4136322459,0.\C,
 0.,-2.8272644917,0.\C,-2.448482873,-1.4136322459,0.\C,-2.448482873,1.4
 136322459,0.\C,1.2478838487,3.5181142991,0.\C,2.4228344321,2.839756263

 Normal termination of Gaussian 09 at Wed Dec  9 14:13:33 2020.
